192
Lattice="8.43116035 0.0 0.0 0.158219155128 14.5042431863 0.0 1.16980663624 4.4685149855 14.9100096405" IsStrange Properties=species:S:1:pos:R:3:CS:R:2  ENERGY=-2069.84934116 Natoms=192 NAME=COBHUW
O	2.33827271799	4.55315540425	11.5841360926	24.10	31.34
O	7.42092185454	14.4195943364	3.32587354791	24.10	31.33
O	3.46522376617	6.02661871166	10.3270669467	-74.64	-90.59
O	6.29397080636	12.946131029	4.58293426261	-74.64	-90.59
C	3.24898979667	16.9696746647	12.5382820783	21.40	19.91
C	6.51020477586	2.00308350711	2.37172756226	21.40	19.91
C	2.20865205877	17.6040183071	11.6052139935	69.67	66.51
C	7.55054251376	1.36873143354	3.30479564703	69.67	66.51
C	3.32376575782	3.66412326999	9.62482717003	120.85	122.11
C	6.43542881471	15.3086349019	5.28518247048	120.85	122.11
C	2.4150974511	17.1924343523	10.1317422549	130.67	135.14
C	7.34408869027	1.78031538835	4.7782673856	130.67	135.14
C	3.29430728356	3.99669038999	8.15397752233	27.37	27.72
C	6.46488728897	14.9760677819	6.75603211818	27.37	27.72
C	8.78392009904	15.9585340351	12.018728684	157.55	150.75
C	0.975274473486	3.01421570557	2.8912809565	157.55	150.75
C	3.08014737951	4.88853010066	10.5028735024	-16.48	-17.20
C	6.67904719303	14.08421964	4.40713613815	-16.48	-17.20
C	3.64335732205	15.6315736367	12.3870186304	35.30	35.37
C	6.11583725048	3.3411845351	2.52298257894	35.30	35.37
C	8.08876249703	3.81985523281	11.2301791188	152.40	143.91
C	1.67042364434	15.152902939	3.67983052172	152.40	143.91
C	9.15990769485	17.4429915756	12.0935552321	128.23	126.70
C	0.599286877678	1.52975816506	2.8164544084	128.23	126.70
C	3.8576436935	17.7317588176	13.549009581	36.12	38.97
C	5.90155087903	1.24099092308	1.3610000595	36.12	38.97
C	4.4569474335	3.90896416655	7.38121108929	33.67	33.94
C	5.30223870787	15.0637855741	7.52879855122	33.67	33.94
C	2.10882712022	4.43916611632	7.55136876748	38.60	38.64
C	7.65036745231	14.5335836244	7.35863244188	38.60	38.64
C	9.01334040333	17.9184078454	13.5480821534	144.84	146.07
C	0.745854169202	1.05434189525	1.36192748714	144.84	146.07
C	3.24645201741	4.67071107301	5.43169074388	40.62	37.46
C	6.51274255512	14.3020386677	9.47831889663	40.62	37.46
C	4.43702460159	4.24669958785	6.02555638546	39.32	39.09
C	5.32216997094	14.726058584	8.88445325506	39.32	39.09
C	7.33184664544	3.35210288775	10.0085461399	168.97	168.30
C	2.42734792709	15.6206468529	4.90146350063	168.97	168.30
C	2.07959628729	4.77196087766	6.19737500223	36.27	37.11
C	7.67958985408	14.2007972942	8.71263463828	36.27	37.10
C	4.64802282051	15.0874349789	13.1925232591	39.00	40.85
C	5.11116332086	3.88532319293	1.71748638142	39.00	40.85
C	5.26719880546	15.8644001298	14.17344661	37.02	41.76
C	4.49199576707	3.10834961088	0.736563030497	37.02	41.75
C	4.85404665482	17.1857231487	14.3591682102	38.92	41.17
C	4.90514791771	1.78702659198	0.550841430307	38.92	41.17
C	6.5874257735	3.71046092727	11.2777983125	174.87	166.87
C	3.17176879903	15.2622888134	3.6322028969	174.87	166.87
O	3.13926667588	11.8490262885	11.538253718	30.15	47.30
O	6.61991946549	7.1237234522	3.37175592253	30.15	47.30
O	2.15343638963	13.3969451729	10.2568691057	-73.98	-81.85
O	7.60574975173	5.57580456775	4.65314053484	-73.98	-81.85
C	2.19664608643	11.3546230456	8.06806399837	27.87	27.64
C	7.5625484861	7.61812669513	6.84193721099	27.87	27.64
C	3.43587489699	10.3992039547	11.5132553275	70.13	67.01
C	6.32331967554	8.57354578599	3.39674588181	70.13	67.01
C	2.18554224825	11.0287165422	9.5391834432	120.63	121.45
C	7.57364389312	7.94403319846	5.37082619732	120.63	121.44
C	2.40762744303	9.70427399401	12.4113593903	23.81	22.13
C	7.35155869834	9.26847574668	2.49865025017	23.81	22.13
C	3.24408286135	10.0301552039	10.0255180657	129.00	134.18
C	6.51510328002	8.94259453683	4.88449157485	129.00	134.18
C	2.15191878077	8.33167265787	12.2702217661	35.91	36.76
C	7.60727579176	10.6410770828	2.63978787442	35.91	36.76
C	2.46216861933	12.2348867731	10.4328021287	-16.68	-17.05
C	7.29701752204	6.73786296763	4.47720751182	-16.68	-17.05
C	2.21871043306	11.9647692578	5.33033976532	40.49	38.14
C	7.54048413947	7.00798048292	9.5796698752	40.49	38.14
C	5.82744097955	11.1459771204	11.1679571554	152.76	143.56
C	3.93175359298	7.82678105147	3.74204405394	152.76	143.56
C	3.36188303376	11.8374924611	7.45597018812	38.22	37.74
C	6.39731153877	7.13525727956	7.4540394524	38.22	37.73
C	1.04089419449	11.1933771039	7.29547461969	34.41	33.92
C	8.71830037804	7.77937263682	7.61453502082	34.41	33.92
C	5.32149547811	8.77331369932	11.9377305265	155.81	149.93
C	4.43769909442	10.1994444725	2.97227911399	155.81	149.93
C	3.37802870583	12.138400574	6.09419446187	36.40	36.65
C	6.38115743554	6.83435759783	8.81581517865	36.40	36.65
C	5.02829344578	10.7200011749	13.4757765222	145.29	145.21
C	4.73089269559	8.25274856583	1.4342331183	145.29	145.21
C	4.91524001664	10.2487498983	12.0164775642	128.22	126.90
C	4.84395455589	8.72399984244	2.89353207632	128.22	126.90
C	1.04865086201	11.4989392173	5.93203795485	39.35	38.55
C	8.71053527936	7.47381052342	8.97797168566	39.35	38.55
C	6.58176846491	10.6958374693	9.93754733857	169.59	167.97
C	3.17742610762	8.2769122714	4.97246230194	169.59	167.97
C	1.69003452332	10.4163529349	13.3837757005	38.23	38.97
C	8.06916004921	8.556405237	1.52622550888	38.23	38.97
C	1.20604376343	7.69123328652	13.0731043039	38.29	39.62
C	8.5531508091	11.2815164542	1.83689690545	38.29	39.62
C	7.32984846044	11.0405454602	11.2079798736	174.05	166.51
C	2.42934611209	7.93221271165	3.70202976692	174.05	166.51
C	8.92491439358	8.40923090193	14.0355043955	37.72	41.74
C	0.834280178953	10.5635188388	0.874505244983	37.72	41.74
C	9.17268933394	9.77509574095	14.1836145894	38.32	40.57
C	0.586505238587	9.19765399974	0.726395051115	38.32	40.57
H	2.94261829188	8.98786986791	9.8870615504	27.81	27.54
H	6.81656784949	9.98487987278	5.02294809012	27.81	27.54
H	2.70478368956	16.1441123056	10.0207544601	27.45	27.35
H	7.05440245181	2.8286374351	4.88925518045	27.45	27.35
H	1.48004804364	17.3468257607	9.58058887168	28.06	28.95
H	8.27914652889	1.62592398002	5.32941233768	28.06	28.95
H	3.40176242222	4.26578773488	13.6901050495	22.44	23.01
H	6.35743215031	14.706970437	1.21989615988	22.44	23.01
H	9.14200834143	4.46926535877	13.6550398536	28.90	29.38
H	0.617186231101	14.5034928131	1.25496978694	28.90	29.38
H	6.55085983106	9.63997796518	9.6649594933	32.89	31.56
H	3.20833474147	9.33278020667	5.24505014722	32.89	31.56
H	5.18281132151	8.35640968234	10.9322809301	30.30	29.47
H	4.57638325102	10.6163484895	3.97772027921	30.30	29.47
H	5.3825455102	3.57536001382	7.85257197098	24.79	24.23
H	4.37664906233	15.3973897269	7.05742923837	24.79	24.23
H	7.52701957639	16.7987834756	9.74588177034	32.56	31.32
H	2.23217499614	2.17396626509	5.16412787018	32.56	31.32
H	1.17831367703	10.6764289382	9.82548878636	27.47	27.70
H	8.5808808955	8.29632923368	5.08452085415	27.47	27.70
H	7.26555243161	4.04014459044	9.16315369159	32.05	31.06
H	2.49364214092	14.9326051503	5.74685594893	32.05	31.06
H	7.96131707718	17.8156320008	13.8462164145	30.02	30.66
H	1.79787749535	1.15711773992	1.063793226	30.02	30.66
H	1.85794951285	11.4857360202	13.5009856917	22.41	22.67
H	7.90123662852	7.48701372053	1.40901551769	22.41	22.67
H	5.46332445752	12.1730273496	11.1181711535	29.61	29.31
H	4.29586168385	6.79972239111	3.79183005581	29.61	29.31
H	4.38637019021	10.1242722468	14.13900532	29.65	30.30
H	5.37281595116	8.84847749384	0.771004320526	29.65	30.30
H	8.93200499943	15.5425574458	11.0141812218	30.25	29.28
H	0.827189573099	3.43019229492	3.89582841873	30.25	29.28
H	4.33159294142	3.30295765407	9.89513017085	27.50	27.61
H	5.42760163111	15.6697920866	5.01487946966	27.50	27.61
H	6.05845477314	15.4433901377	14.7941402038	23.47	23.83
H	3.70073136823	3.52936803411	0.11586100553	23.47	23.83
H	4.14454764905	13.3327924738	0.224496506639	22.65	23.03
H	5.61463849232	5.63995726685	14.6855131339	22.65	23.03
H	2.69409297824	7.73516806311	11.537360015	21.49	21.37
H	7.06510159429	11.2375816776	3.37264962553	21.49	21.37
H	7.78284627489	10.2148987894	11.7588718909	33.06	32.04
H	1.97634829764	8.7578593824	3.15113774965	33.06	32.04
H	8.44690132637	4.84776544036	11.1683871446	29.62	29.45
H	1.31229324616	14.1249843003	3.74162249592	29.62	29.45
H	6.63619160497	11.3930607056	9.09898413016	32.07	30.95
H	3.12300296756	7.57968903509	5.81102551035	32.07	30.95
H	9.38924368753	15.3778800218	12.7270051715	30.45	30.28
H	0.369942453837	3.59487815003	2.18300446898	30.45	30.28
H	4.18161102995	10.1924803341	9.48069648385	28.11	28.97
H	5.57758354258	8.78026940661	5.42931315667	28.11	28.97
H	1.03259793271	6.62218744762	12.9349344481	22.60	23.25
H	0.295436289824	12.3505622931	1.97507519243	22.60	23.25
H	6.29594369788	17.3966117625	11.8440097481	33.28	32.27
H	3.46324244349	1.57613797815	3.06599989244	33.28	32.27
H	3.16806751963	14.9946584904	11.6403887945	21.43	21.96
H	6.5911270529	3.97809125026	3.26962084605	21.43	21.96
H	7.90039351249	11.9700724576	11.2451781531	31.60	30.11
H	1.85879262888	7.00267728306	3.66483148746	31.60	30.11
H	3.22199322123	4.91758387922	4.36922121006	24.25	23.75
H	6.53719292014	14.0551658615	10.5407884305	24.25	23.75
H	1.20031057439	4.53926928316	8.14888510148	24.95	24.31
H	8.55888399814	14.4334804575	6.76112453903	24.95	24.31
H	7.72951918567	15.8275981149	12.2972773597	31.42	30.70
H	2.02967538686	3.1451516258	2.6127238497	31.42	30.70
H	4.72671927122	8.17560344863	12.6394728648	30.05	29.83
H	5.03246687015	10.7971547232	2.27053677574	30.05	29.83
H	4.26545048847	11.9938904856	8.04945642747	24.83	24.16
H	5.4937356529	6.97886768623	6.86055321304	24.83	24.16
H	8.56152295133	10.82590498	7.77100049459	24.85	24.23
H	1.19766319004	8.14685319184	7.13900071476	24.85	24.23
H	1.14581155389	5.11049725919	5.74684751777	23.34	22.78
H	8.61337458748	13.8622609127	9.16316212275	23.34	22.78
H	9.62506324252	17.3155124311	14.2310398664	29.42	30.29
H	0.134131330008	1.65724574072	0.678969774146	29.42	30.29
H	5.35457935132	4.18887025901	5.43811528807	23.64	23.30
H	4.40461522121	14.7838794817	9.47189435244	23.64	23.30
H	8.57121035457	11.3810041463	5.34023794757	23.90	23.41
H	1.18798421796	7.59174559439	9.56977169295	23.90	23.41
H	8.61014545307	10.3516690726	14.9197729242	22.87	23.67
H	1.14904911946	8.62108066804	-0.0097632836853	22.87	23.67
H	2.23036229667	12.191188069	4.26341857883	24.36	23.97
H	7.5288238447	6.78156167172	10.6465910617	24.36	23.97
H	6.01934262028	4.64170788141	11.2998120721	31.59	30.31
H	3.73984352109	14.3310502904	3.61019756839	31.59	30.31
H	6.06868177065	10.6132120979	13.8096841967	29.95	30.60
H	3.69050437072	8.35953764283	1.1003254438	29.95	30.60
H	6.37709361625	8.6610865239	12.2191289344	31.38	30.65
H	3.38210095628	10.3116632168	2.69088070615	31.38	30.65
H	4.74051264955	11.7758438166	13.574193457	28.85	29.52
H	5.01868192298	7.1969143552	1.33581618353	28.85	29.52
H	4.29613991214	12.5068338502	5.6345023061	23.30	22.60
H	5.46305466039	6.4659243217	9.27550733441	23.30	22.60
H	4.9435940089	14.0465239221	13.0467737901	22.50	22.88
H	4.81559213247	4.92622581858	1.86322741923	22.50	22.88
H	8.1801815687	7.91593214101	14.6607170913	25.62	25.84
H	1.57901300383	11.0568175997	0.249292549229	25.62	25.84
62
Lattice="6.265332446 0.0 0.0 1.69572475717 7.62373170428 0.0 0.677006762785 0.474085175524 12.0657897552"  Properties=species:S:1:pos:R:3:CS:R:3
O	1.30521285115	4.35852863872	1.52384789218	198.20	202.27   202.27
O	7.33285111481	3.73928197575	10.541941863	198.20	202.27   202.27
O	8.17400332235	6.81383724032	9.39586845597	124.16	130.72   130.72
O	0.46406064361	1.28397963949	2.66991503387	124.16	130.73   130.73
O	5.64658700963	6.03673552638	1.96586083092	213.28	214.65   214.65
O	2.99147695633	2.0610750881	10.0999289243	213.28	214.65   214.65
O	3.87613563237	5.76083534678	8.92853104349	-80.06	-69.48   -69.48
O	4.76192833359	2.33697526769	3.13725244635	-80.06	-69.49   -69.49
C	2.77474031102	6.17100160069	8.56362555117	-0.63	0.13     0.13
C	5.8633173896	1.92680901378	3.502164204	    -0.63	0.13     0.13
C	2.2543104714	6.00815307976	7.21810155106	30.42	38.74    38.74
C	6.38374722923	2.08965753472	4.84768820411	30.42	38.74    38.74
C	7.4725179057	6.64199796732	6.61201835157	24.25	36.02    36.02
C	1.16554606026	1.45581264715	5.4537714036	24.25	36.02    36.02
H	6.83525214662	7.38572425532	7.08719996027	24.06	23.53    23.53
H	1.80280555401	0.712092624483	4.9785897949	24.06	23.53    23.53
C	2.9158919857	5.06627938782	6.25706220717	129.70	133.60   133.60
C	5.72217198026	3.03153749199	5.808727548	    129.70	133.60   133.60
H	2.86677177932	4.0305823425	6.63865854513	29.31	28.83    28.83
H	5.77129218664	4.06723453731	5.42713121004	29.31	28.83    28.83
H	3.98861088044	5.29014598144	6.13757605209	27.66	26.99    26.99
H	4.64945308552	2.80767089836	5.92820743775	27.66	26.99    26.99
C	7.35153433617	6.18009259807	5.24279259882	29.92	31.17    31.17
C	1.28652336446	1.91772428173	6.82299715635	29.92	31.17    31.17
C	2.11043964244	5.24071877378	5.00165248364	27.24	26.67    26.67
C	6.52762432352	2.8570918407	7.06413727154	27.24	26.68    26.68
C	2.22185604933	4.60108471903	3.76902977421	56.57	66.10    66.10
C	6.41620791663	3.49672589544	8.29675371563	56.57	66.10    66.10
H	3.01579271155	3.87674336962	3.58456585633	22.76	23.53    23.53
H	5.62226498908	4.22107351019	8.48121763351	22.76	23.53    23.53
C	1.2893302334	4.90109389788	2.76943357444	14.12	12.78    12.78
C	7.34872746723	3.1967167166	9.29635618073	14.12	12.78    12.78
C	6.50457416545	5.84108172475	3.01190820544	15.38	16.19    16.19
C	2.13348980051	2.25673515505	9.05388154974	15.38	16.19    16.19
C	6.41518040211	6.49166131528	4.24130426865	65.89	65.90    65.90
C	2.22288356385	1.60614929919	7.82448548652	65.89	65.91    65.91
H	5.6371200923	7.23268097967	4.41950911942	24.12	23.84    23.84
H	3.00094387366	0.865135900141	7.64627437042	24.12	23.84    23.84
C	2.35963697515	6.98766888903	10.751229028	118.67	114.93   114.93
C	6.27842699081	1.11014799077	1.31455446183	118.67	114.93   114.93
H	2.91180072361	6.10425701415	11.0928400143	25.90	26.31    26.31
H	5.72626324235	1.99355986566	0.972949740872	25.90	26.31    26.31
H	7.72327530618	7.11403437914	11.358320946	26.77	27.01    27.01
H	0.914788659776	0.983776235338	0.707468809137	26.77	27.01    27.01
H	2.99682128491	7.88056647724	10.817115264	27.47	26.93    26.93
H	5.64124268105	0.217244137233	1.24867449116	27.47	26.93    26.93
C	4.64576280471	7.04798524449	2.13858978112	113.86	111.71   111.71
C	3.99230116125	1.04982536998	9.92719997405	113.86	111.71   111.71
H	3.97894347248	6.81168823129	2.98190352835	27.33	27.31    27.31
H	4.65912049348	1.28612238319	9.08388622682	27.33	27.31    27.31
H	4.06440887237	7.04243415994	1.2102178806	26.50	26.46    26.46
H	4.57365509359	1.05538271986	10.8555718746	26.50	26.46    26.46
H	3.41149857818	0.411939342992	2.29613783081	26.17	26.30    26.30
H	5.22655912245	7.68587127148	9.76965192436	26.17	26.30    26.30
C	2.45042164229	3.56569467501	1.16794568259	111.10	111.47   111.47
C	6.18764232367	4.5321222048	10.8978440726	111.10	111.47   111.47
H	3.37198312644	4.16837579898	1.24348679589	26.65	26.75    26.75
H	5.26608083952	3.92943481549	10.8222966939	26.65	26.75    26.75
H	2.27130831832	3.24770399204	0.13514322086	24.99	24.90    24.90
H	6.36675564764	4.85010662243	11.930640269	24.99	24.90    24.90
H	2.54996524419	2.69448766772	1.82956478889	25.93	26.25    26.25
H	6.08809872177	5.40332294675	10.2362249663	25.93	26.25    26.25
8
Lattice="4 0.0 0.0 0.0 7.0 0.0 0.0 0.0 3.0"  Properties=species:S:1:pos:R:3:bool:L:1:int:I:1:strings:S:2
H	2.27130831832	3.24770399204	0.13514322086	T       33  bar "test"
H	6.36675564764	4.85010662243	11.930640269	t       22  s    H
H	2.54996524419	2.69448766772	1.82956478889	True    1   s    H
H	6.08809872177	5.40332294675	10.2362249663	tRUE    34  s    H
H	2.27130831832	3.24770399204	0.13514322086	f       2   s    H
H	6.36675564764	4.85010662243	11.930640269	F       89  s    H
H	2.54996524419	2.69448766772	1.82956478889	False  -22  s    H
H	6.08809872177	5.40332294675	10.2362249663	false   36  s    H
